 Gaussian 09, Revision D.01,
 Gaussian 09:  EM64L-G09RevD.01 24-Apr-2013

 --------------------------------------------
 #P b2plypd3/cc-pvtz freq int=ultrafine nosym
 --------------------------------------------

 -
 O
 -
 Symbolic Z-matrix:
 Charge =  0 Multiplicity = 1

                          Input orientation:
 ---------------------------------------------------------------------
 Center     Atomic      Atomic             Coordinates (Angstroms)
 Number     Number       Type             X           Y           Z
 ---------------------------------------------------------------------
      1          8           0        0.000000    0.000000    0.000000
      2          1           0        0.000000    0.000000    0.959500
      3          1           0        0.930142    0.000000   -0.235535
 ---------------------------------------------------------------------

 SCF Done:  E(RB2PLYPD3) =  -76.3237104850     A.U. after   10 cycles
 E2(B2PLYPD3) =    -0.8347506252D-01 E(B2PLYPD3) =    -0.76407185547501D+02
 E2(B2PLYPD3) =    -0.8347506252D-01 E(B2PLYPD3) =    -0.76407185547501D+02

 Alpha  occ. eigenvalues --  -19.72021  -1.14818  -0.60268  -0.46588  -0.39058
 Alpha virt. eigenvalues --    0.07271   0.14194   0.43839   0.49252   0.56397
 Alpha virt. eigenvalues --    0.66466   0.69407   0.69553   0.75316   0.84641
 Alpha virt. eigenvalues --    1.00803   1.08525   1.38215   1.41487   1.87683

 Mulliken charges:
               1
     1  O   -0.458321
     2  H    0.229160
     3  H    0.229160
 Sum of Mulliken charges =   0.00000

 Dipole moment (field-independent basis, Debye):
    X=              1.5580    Y=              0.0000    Z=              1.2127  Tot=              1.9743
 Quadrupole moment (field-independent basis, Debye-Ang):
   XX=             -5.1252   YY=             -7.3258   ZZ=             -4.7873
   XY=              0.0000   XZ=             -0.6672   YZ=              0.0000

  Exact polarizability:   7.663   0.000   5.493  -0.574   0.000   7.954
 Approx polarizability:   7.948   0.000   5.212  -0.620   0.000   8.262

                      1                      2                      3
                      A                      A                      A
 Frequencies --   1651.5076              3829.3552              3937.1004
 Red. masses --      1.0830                 1.0449                 1.0816
 Frc consts  --      1.7404                 9.0274                 9.8777
 IR Inten    --     68.0916                 3.9231                44.9924

 - Thermochemistry -
 -------------------
 Temperature   298.150 Kelvin.  Pressure   1.00000 Atm.
 Atom     1 has atomic number  8 and mass  15.99491

 Molecular mass:    18.01056 amu.
 Principal axes and moments of inertia in atomic units:
                           1         2         3
     Eigenvalues --     2.22024   4.12675   6.34699
           X           -0.61422   0.78914   0.00000
           Y            0.00000   0.00000   1.00000
           Z            0.78914   0.61422   0.00000
 This molecule is an asymmetric top.
 Rotational symmetry number  2.
 Rotational temperatures (Kelvin)     39.01099    20.98837    13.64643
 Rotational constants (GHZ):         812.85817   437.32724   284.34584
 Zero-point vibrational energy      56331.9 (Joules/Mol)
                                   13.46365 (Kcal/Mol)
 Vibrational temperatures:   2376.15  5509.58  5664.60
          (Kelvin)

 Zero-point correction=                           0.021456 (Hartree/Particle)
 Thermal correction to Energy=                    0.024291
 Thermal correction to Enthalpy=                  0.025235
 Thermal correction to Gibbs Free Energy=         0.003817
 Sum of electronic and zero-point Energies=            -76.385730
 Sum of electronic and thermal Energies=               -76.382895
 Sum of electronic and thermal Enthalpies=             -76.381951
 Sum of electronic and thermal Free Energies=          -76.403368

                     E (Thermal)             CV                S
                      KCal/Mol        Cal/Mol-Kelvin    Cal/Mol-Kelvin
 Total                   15.243              6.005             45.077
 Electronic               0.000              0.000              0.000
 Translational            0.889              2.981             34.608
 Rotational               0.889              2.981             10.463
 Vibrational             13.465              0.044              0.006

 Optimization completed.
    -- Stationary point found.
 Normal termination of Gaussian 09 at Wed Aug 30 11:30:33 2017.
