 Gaussian 09, Revision D.01,
 Gaussian 09:  EM64L-G09RevD.01 24-Apr-2013

 -------------------------------------------------------
 #P b2plypd3/cc-pvtz opt=(maxcyc=50) int=ultrafine nosym
 -------------------------------------------------------

 -
 O
 -
 Symbolic Z-matrix:
 Charge =  0 Multiplicity = 1

 SCF Done:  E(RB2PLYPD3) =  -76.3232325185     A.U. after   10 cycles
 E2(B2PLYPD3) =    -0.8378613290D-01 E(B2PLYPD3) =    -0.76407018651447D+02
 SCF Done:  E(RB2PLYPD3) =  -76.3236784069     A.U. after    7 cycles
 E2(B2PLYPD3) =    -0.8350299450D-01 E(B2PLYPD3) =    -0.76407181401358D+02
 SCF Done:  E(RB2PLYPD3) =  -76.3237116489     A.U. after    7 cycles
 E2(B2PLYPD3) =    -0.8347390028D-01 E(B2PLYPD3) =    -0.76407185549152D+02
 Optimization completed.
    -- Stationary point found.

                          Input orientation:
 ---------------------------------------------------------------------
 Center     Atomic      Atomic             Coordinates (Angstroms)
 Number     Number       Type             X           Y           Z
 ---------------------------------------------------------------------
      1          8           0        0.003874    0.000000    0.003028
      2          1           0        0.001970    0.000000    0.962486
      3          1           0        0.934454    0.000000   -0.230609
 ---------------------------------------------------------------------

 Alpha  occ. eigenvalues --  -19.72020  -1.14820  -0.60269  -0.46589  -0.39058
 Alpha virt. eigenvalues --    0.07271   0.14195   0.43840   0.49255   0.56396
 Alpha virt. eigenvalues --    0.66466   0.69406   0.69553   0.75317   0.84640
 Alpha virt. eigenvalues --    1.00800   1.08528   1.38218   1.41494   1.87685

 Mulliken charges:
               1
     1  O   -0.458286
     2  H    0.229143
     3  H    0.229143
 Sum of Mulliken charges =   0.00000

 Dipole moment (field-independent basis, Debye):
    X=              1.5556    Y=              0.0000    Z=              1.2158  Tot=              1.9744
 Quadrupole moment (field-independent basis, Debye-Ang):
   XX=             -5.1105   YY=             -7.3257   ZZ=             -4.7827
   XY=              0.0000   XZ=             -0.6583   YZ=              0.0000

 Normal termination of Gaussian 09 at Wed Aug 30 11:24:09 2017.
